BEGIN_CFG
 Size
 	224
 AtomData: 	 id 	 type 	 cartes_x 	 cartes_y 	 cartes_z 	 fx 	 fy 	 fz
	1	0	52.0	42.0431	46.8	0.5000802762736212	-0.8766160652690338	-0.003382388995270339
	2	2	52.0	42.6742	47.6924	-0.16189737537248766	0.23527429293268334	0.15660080010619645
	3	2	52.0	42.6742	45.9076	-0.15990816431249652	0.23406402327318712	-0.14917607136744138
	4	2	51.1076	41.4121	46.8	-0.3831620359499795	0.0736170071693131	0.0011872839976252618
	5	1	53.2533	41.1569	46.8	-0.24217415668102044	1.6446091430467236	-0.003242366719488209
	6	2	53.2533	40.5258	45.9076	0.04072750751159212	-0.34045112807144196	-0.1569267131373779
	7	2	53.2533	40.5258	47.6924	0.039921980904861654	-0.3428770152849189	0.16413243531257957
	8	1	54.5066	42.0431	46.8	0.2464163225588017	-1.6537746628622516	-0.00446322932382876
	9	2	54.5066	42.6742	47.6924	-0.03874806664344768	0.34912551576945416	0.16057515988325302
	10	2	54.5066	42.6742	45.9076	-0.03978962051636984	0.34687436072384636	-0.15262433202458353
	11	0	55.76	41.1569	46.8	-0.502209303921145	0.8728371093289117	-0.0028206543861465845
	12	2	55.76	40.5258	47.6924	0.16188873646601268	-0.23084381946257224	0.15816552204147905
	13	2	55.76	40.5258	45.9076	0.16011421251633748	-0.2298236057455258	-0.15105590770081168
	14	2	56.6524	41.7879	46.8	0.38049266527126996	-0.07155374833953633	0.0011187383885112045
	15	0	41.6	47.2431	46.8	0.49962143721126195	-0.8764521831563209	-0.003473508889756543
	16	2	41.6	47.8742	47.6924	-0.1614237267561714	0.23539451771446027	0.15683759870332345
	17	2	41.6	47.8742	45.9076	-0.1596904433005018	0.23415750858254147	-0.14933393709885934
	18	2	40.7076	46.6121	46.8	-0.38339621202192653	0.07321509232997667	0.0011196639856335248
	19	1	42.8533	46.3569	46.8	-0.2419507792421671	1.644616342135453	-0.0031454361319563275
	20	2	42.8533	45.7258	45.9076	0.04054881584492194	-0.34038371374769955	-0.1568932887968497
	21	2	42.8533	45.7258	47.6924	0.03988675679215113	-0.3427728856086578	0.16404188106077922
	22	1	44.1066	47.2431	46.8	0.24650327726623744	-1.6537895238382707	-0.004414995429343399
	23	2	44.1066	47.8742	47.6924	-0.038628561770543655	0.34894996084858737	0.16059536875375702
	24	2	44.1066	47.8742	45.9076	-0.03990727419502923	0.34696841167588655	-0.15277253040827948
	25	0	45.36	46.3569	46.8	-0.5022293071033995	0.8729973918972601	-0.0027178102614443225
	26	2	45.36	45.7258	47.6924	0.16216199330534659	-0.23075696759926118	0.1579382879479494
	27	2	45.36	45.7258	45.9076	0.16005605416381835	-0.22992968946015618	-0.15109097754733514
	28	2	46.2524	46.9879	46.8	0.38074463337679043	-0.07179887731076418	0.0013699865851588301
	29	0	52.0	47.2431	46.8	0.49735593541025824	-0.8776594189141383	-0.003106972429317682
	30	2	52.0	47.8742	47.6924	-0.16156086939646186	0.2359025162684271	0.1567108433196279
	31	2	52.0	47.8742	45.9076	-0.1591905694323865	0.2347095244218809	-0.14958066015402008
	32	2	51.1076	46.6121	46.8	-0.38209081154708074	0.07167777835392726	0.0014052106978693548
	33	1	53.2533	46.3569	46.8	-0.2443063210743477	1.656196230622491	-0.003973588446121291
	34	2	53.2533	45.7258	45.9076	0.03978463257632178	-0.34727015633776304	-0.15251835115407783
	35	2	53.2533	45.7258	47.6924	0.03852412356190851	-0.34972561123709184	0.16010305392880728
	36	1	54.5066	47.2431	46.8	0.2462828308849382	-1.657180963116515	-0.003989734973699546
	37	2	54.5066	47.8742	47.6924	-0.038590663710590875	0.3498952011987259	0.160263953561904
	38	2	54.5066	47.8742	45.9076	-0.03963221758351303	0.3473256921651022	-0.15262356069364827
	39	0	55.76	46.3569	46.8	-0.49921689984674567	0.8780572199884866	-0.003159937153539347
	40	2	55.76	45.7258	47.6924	0.16115283533170566	-0.2360814136233467	0.15670107312778117
	41	2	55.76	45.7258	45.9076	0.15917447432687057	-0.23465661111972155	-0.1493546087679245
	42	2	56.6524	46.9879	46.8	0.3817897353720149	-0.07110709630595441	0.001188466705059338
	43	0	41.6	52.4431	46.8	0.5006048327316651	-0.8724020786814212	-0.0034433755612187805
	44	2	41.6	53.0742	47.6924	-0.16227491615426967	0.23086253709326804	0.15857386463860937
	45	2	41.6	53.0742	45.9076	-0.16024153354271892	0.22987420505487935	-0.15103667584949235
	46	2	40.7076	51.8121	46.8	-0.3808842956981361	0.0720088850134062	0.0012515101535018245
	47	1	42.8533	51.5569	46.8	-0.24455654082974834	1.6532158593106816	-0.0037450688010328657
	48	2	42.8533	50.9258	45.9076	0.0398995094636142	-0.3466934064864327	-0.15252380189268705
	49	2	42.8533	50.9258	47.6924	0.03883245024776589	-0.34918177150566626	0.16026925003432616
	50	1	44.1066	52.4431	46.8	0.24436658773142322	-1.646237988293758	-0.004489711685939593
	51	2	44.1066	53.0742	47.6924	-0.03955210201036997	0.34261980212903853	0.16486761653801368
	52	2	44.1066	53.0742	45.9076	-0.04067968499360557	0.3405245073544169	-0.15692805011099906
	53	0	45.36	51.5569	46.8	-0.5010101414271166	0.8776691376839227	-0.002916556532431444
	54	2	45.36	50.9258	47.6924	0.16180903226936844	-0.23515540512452754	0.15645820672729677
	55	2	45.36	50.9258	45.9076	0.15935861673214996	-0.233980822376303	-0.1492989700964606
	56	2	46.2524	52.1879	46.8	0.38313714767180157	-0.07346119832038918	0.001377802738636202
	57	0	52.0	52.4431	46.8	0.4970939914246416	-0.877290157084395	-0.0031023444437060796
	58	2	52.0	53.0742	47.6924	-0.16128894953074907	0.23600880567130691	0.156813224645769
	59	2	52.0	53.0742	45.9076	-0.15894698312302918	0.23480223840029998	-0.14970571860965803
	60	2	51.1076	51.8121	46.8	-0.38202386002189953	0.07125930561051376	0.0014293276451120352
	61	1	53.2533	51.5569	46.8	-0.24407379050839592	1.655928681632078	-0.003989272175138386
	62	2	53.2533	50.9258	45.9076	0.039647129981594864	-0.34726928216270303	-0.15241077619963928
	63	2	53.2533	50.9258	47.6924	0.03834070106550203	-0.3497792444481241	0.16000689467221066
	64	1	54.5066	52.4431	46.8	0.24613396401443163	-1.6568240940037984	-0.003943403695521178
	65	2	54.5066	53.0742	47.6924	-0.03859909692881646	0.3497845409205463	0.16024225345159182
	66	2	54.5066	53.0742	45.9076	-0.039620081976798165	0.34723117841450085	-0.15262726308213753
	67	0	55.76	51.5569	46.8	-0.4993775423695306	0.8779427030556307	-0.003190224748264162
	68	2	55.76	50.9258	47.6924	0.16117880347319297	-0.2360666554914519	0.15671290020212195
	69	2	55.76	50.9258	45.9076	0.15921900583286663	-0.23464334422763497	-0.14935538009885976
	70	2	56.6524	52.1879	46.8	0.38180716745115184	-0.07109881735391588	0.0011631156283202304
	71	0	52.0	57.6431	46.8	0.5005025542496485	-0.8719021019691812	-0.002889971326195909
	72	2	52.0	58.2742	47.6924	-0.16203071278016415	0.2308189311843943	0.15816449360023202
	73	2	52.0	58.2742	45.9076	-0.16006782981609677	0.22988562075272126	-0.15110347310848646
	74	2	51.1076	57.0121	46.8	-0.3805772031417752	0.07168621157215284	0.0012778382494256035
	75	1	53.2533	56.7569	46.8	-0.2442500653381356	1.6525044865001162	-0.00440774491855189
	76	2	53.2533	56.1258	45.9076	0.0398150230151713	-0.3468946210164127	-0.15262556615407993
	77	2	53.2533	56.1258	47.6924	0.03861164391203013	-0.3491112204361206	0.16052610323577007
	78	1	54.5066	57.6431	46.8	0.24393433387529964	-1.645179927938821	-0.0032308995995839066
	79	2	54.5066	58.2742	47.6924	-0.03980674406313277	0.3427916032393536	0.1640774651279262
	80	2	54.5066	58.2742	45.9076	-0.04048798354516055	0.34031815061820186	-0.15684608334361136
	81	0	55.76	56.7569	46.8	-0.5015306355422349	0.8770548497270761	-0.0034792167386775187
	82	2	55.76	56.1258	47.6924	0.16142346964585963	-0.2353593450238121	0.15684706036279603
	83	2	55.76	56.1258	45.9076	0.15968735797676076	-0.23405944670963788	-0.14930750615881086
	84	2	56.6524	57.3879	46.8	0.3829961483768347	-0.07303130987913373	0.001098940894506019
	85	0	52.0	42.0431	52.0	0.5002812851153517	-0.8767883291779103	0.002967104419722606
	86	2	52.0	42.6742	52.8924	-0.16017242229091896	0.23383514367366226	0.1496386128182898
	87	2	52.0	42.6742	51.1076	-0.16195985317824427	0.23523130408855777	-0.1568275199791026
	88	2	51.1076	41.4121	52.0	-0.3831831704176058	0.0738803909726756	-0.001005095630715205
	89	1	53.2533	41.1569	52.0	-0.2423361361774265	1.6447841323249044	0.0038148999617057013
	90	2	53.2533	40.5258	51.1076	0.04001418066265724	-0.34261383716980576	-0.16418755976341998
	91	2	53.2533	40.5258	52.8924	0.04076345153317556	-0.34024795950309256	0.15676961873689524
	92	1	54.5066	42.0431	52.0	0.24659146610316962	-1.6544914864114262	0.0036625363909592997
	93	2	54.5066	42.6742	52.8924	-0.03970652246361041	0.3467138724672485	0.15332218083275073
	94	2	54.5066	42.6742	51.1076	-0.03885697857150738	0.3493598975296507	-0.1608142724731858
	95	0	55.76	41.1569	52.0	-0.501892389750875	0.8729289491322707	0.0031769578561775705
	96	2	55.76	40.5258	52.8924	0.16016661159787327	-0.22948288316038717	0.1509495154538072
	97	2	55.76	40.5258	51.1076	0.16164602433171532	-0.2306819428102909	-0.15826980598392712
	98	2	56.6524	41.7879	52.0	0.38043404412018966	-0.07170894012371204	-0.0009421036043350697
	99	0	41.6	47.2431	52.0	0.4997874276285315	-0.8767146927846233	0.0030827012158879475
	100	2	41.6	47.8742	52.8924	-0.15988168195038566	0.23401738346263462	0.1496514683338776
	101	2	41.6	47.8742	51.1076	-0.16147262913746732	0.23546733135474948	-0.1569349920894165
	102	2	40.7076	46.6121	52.0	-0.38347751030250365	0.0733729066393323	-0.0009527479712417537
	103	1	42.8533	46.3569	52.0	-0.24205619446998694	1.6448249100203487	0.0037018742686579145
	104	2	42.8533	45.7258	51.1076	0.03992532333891448	-0.3426354858580556	-0.16415320982576942
	105	2	42.8533	45.7258	52.8924	0.040582702984011336	-0.3402254366397828	0.15675311225488053
	106	1	44.1066	47.2431	52.0	0.24665404675305097	-1.6544584734473966	0.0038000389856862244
	107	2	44.1066	47.8742	52.8924	-0.039664716326918946	0.3467969705200079	0.1531513053195579
	108	2	44.1066	47.8742	51.1076	-0.03872024730771573	0.3493607717047106	-0.16064817921179161
	109	0	45.36	46.3569	52.0	-0.5018689927125052	0.873087431928437	0.0030133842758386232
	110	2	45.36	45.7258	52.8924	0.1601536532381608	-0.22955775368317047	0.15098036869121786
	111	2	45.36	45.7258	51.1076	0.1618390113317191	-0.2307222577071742	-0.15813477164819303
	112	2	46.2524	46.9879	52.0	0.3805601310170746	-0.07191015465369202	-0.00099439984174617
	113	0	52.0	47.2431	52.0	0.49670050980353075	-0.8822240525449235	-0.0003268900503661393
	114	2	52.0	47.8742	52.8924	-0.1605931061830136	0.23665734072167932	0.15604446481361958
	115	2	52.0	47.8742	51.1076	-0.16099183285448426	0.23640856078402456	-0.15566584416852822
	116	2	51.1076	46.6121	52.0	-0.38133490723051905	0.07306509417409841	-0.00026364091367424823
	117	1	53.2533	46.3569	52.0	-0.24514403789210998	1.6616726802628863	0.00039250460192618235
	118	2	53.2533	45.7258	51.1076	0.038903978336496316	-0.34967650316754656	-0.15865470012062532
	119	2	53.2533	45.7258	52.8924	0.039298899775353	-0.3496370624457232	0.15871254994077036
	120	1	54.5066	47.2431	52.0	0.24698330221828527	-1.6628978108984023	-0.000589553944855716
	121	2	54.5066	47.8742	52.8924	-0.03900348002714575	0.350155602522472	0.159335631070279
	122	2	54.5066	47.8742	51.1076	-0.03891981633170046	0.3502553099013709	-0.15899249164820992
	123	0	55.76	46.3569	52.0	-0.4980405173263389	0.8827058772691535	0.0001619280743437113
	124	2	55.76	45.7258	52.8924	0.1601835294563868	-0.2363964765993721	0.15561411357380298
	125	2	55.76	45.7258	51.1076	0.16036823750435206	-0.2364349403020107	-0.15555256136516868
	126	2	56.6524	46.9879	52.0	0.3811352353624097	-0.07226851500621705	-0.00014804411750890593
	127	0	41.6	52.4431	52.0	0.49648535989465364	-0.8816835038254884	-0.0003422652470091274
	128	2	41.6	53.0742	52.8924	-0.1600761087681353	0.2367117966857092	0.1554952771877095
	129	2	41.6	53.0742	51.1076	-0.1603094106650224	0.2366224251413429	-0.15525143376804043
	130	2	40.7076	51.8121	52.0	-0.38155674200750184	0.0719664618119665	-9.61078345342637e-05
	131	1	42.8533	51.5569	52.0	-0.24449020636931537	1.661237238238897	0.0004912349616403537
	132	2	42.8533	50.9258	51.1076	0.03887173670340216	-0.3500736357550843	-0.15915935624053934
	133	2	42.8533	50.9258	52.8924	0.03915296396240049	-0.3499544394145544	0.1591066486266294
	134	1	44.1066	52.4431	52.0	0.24686935092811513	-1.6616953059703208	-0.0005551525851428095
	135	2	44.1066	53.0742	52.8924	-0.039079533257363075	0.34938853961838023	0.15860471787602
	136	2	44.1066	53.0742	51.1076	-0.03900584544201391	0.3494972458581905	-0.1582939229311698
	137	0	45.36	51.5569	52.0	-0.49875451266208437	0.8826563064010471	0.00015292921343226337
	138	2	45.36	50.9258	52.8924	0.16047946342521757	-0.23671884150825132	0.1558073576841185
	139	2	45.36	50.9258	51.1076	0.16070551481131315	-0.23676296163774857	-0.15574847942272646
	140	2	46.2524	52.1879	52.0	0.3810828362808738	-0.07232919303979138	-0.00013313171942707798
	141	0	52.0	52.4431	52.0	0.49606714426155185	-0.8823261253386905	0.00022671987290613622
	142	2	52.0	53.0742	52.8924	-0.16025222933168792	0.23638521516771716	0.15562496362895908
	143	2	52.0	53.0742	51.1076	-0.16047087594080495	0.23643627727563182	-0.15559102506780728
	144	2	51.1076	51.8121	52.0	-0.38123278301468977	0.07284120251462159	-0.00015909986091439907
	145	1	53.2533	51.5569	52.0	-0.2449219974268778	1.6619055707832746	-0.0006430328897008921
	146	2	53.2533	50.9258	51.1076	0.03881923477774165	-0.35028729442415324	-0.1588397167009647
	147	2	53.2533	50.9258	52.8924	0.038917605183019365	-0.350110196841416	0.15917288024293771
	148	1	54.5066	52.4431	52.0	0.24694010768591027	-1.6624873599967152	0.0005324754556459607
	149	2	54.5066	53.0742	52.8924	-0.0391831487130006	0.34958769726586614	0.15870139135324016
	150	2	54.5066	53.0742	51.1076	-0.0388988361302612	0.34973008495651636	-0.1587551274083971
	151	0	55.76	51.5569	52.0	-0.49854183101220007	0.8826964156096809	-0.0003889050575616032
	152	2	55.76	50.9258	52.8924	0.16039878220938866	-0.2366796064746774	0.15595205936757459
	153	2	55.76	50.9258	51.1076	0.16064643086167169	-0.23663348088474842	-0.15570600479922442
	154	2	56.6524	52.1879	52.0	0.38119827881085216	-0.07237742693427675	-8.89601678674565e-05
	155	0	41.6	57.6431	52.0	0.500867548048217	-0.8677202027484754	-1.1364275779599933e-05
	156	2	41.6	58.2742	52.8924	-0.16056641813265335	0.22901849051529416	0.15212728636989747
	157	2	41.6	58.2742	51.1076	-0.16058199901754572	0.22892433671912923	-0.1520611575977139
	158	2	40.7076	57.0121	52.0	-0.3815612157269264	0.07071032367285308	-4.442866187137712e-05
	159	1	42.8533	56.7569	52.0	-0.24384249407194047	1.6486154873465626	-8.026983933011538e-05
	160	2	42.8533	56.1258	51.1076	0.0395082904132468	-0.34638441131376474	-0.1547532568279827
	161	2	42.8533	56.1258	52.8924	0.0395128155547337	-0.34650982972383915	0.15485898058817663
	162	1	44.1066	57.6431	52.0	0.2438699020311737	-1.6405626381161884	-0.000128040935254316
	163	2	44.1066	58.2742	52.8924	-0.04050346158592825	0.33992158367334996	0.1581070551565858
	164	2	44.1066	58.2742	51.1076	-0.04037788890966678	0.33978603511699235	-0.15797798578008446
	165	0	45.36	56.7569	52.0	-0.5026099846309852	0.8731971666094943	3.6921040768112005e-05
	166	2	45.36	56.1258	52.8924	0.16051191074656113	-0.23322430099499314	0.15107436822119572
	167	2	45.36	56.1258	51.1076	0.16069965269620512	-0.23298323436669105	-0.15092622125956212
	168	2	46.2524	57.3879	52.0	0.38388472161426224	-0.07256573452660658	-0.00020681953477624858
	169	0	52.0	57.6431	52.0	0.49972602968608415	-0.8723074106646326	0.0031604513741628577
	170	2	52.0	58.2742	52.8924	-0.16005795678012538	0.22958264196134842	0.15103055662407255
	171	2	52.0	58.2742	51.1076	-0.16154287167463893	0.2308158972827156	-0.15833881439160233
	172	2	51.1076	57.0121	52.0	-0.3809224508684007	0.07183045045704776	-0.0009322305683636524
	173	1	53.2533	56.7569	52.0	-0.2444033545060043	1.6534987834977377	0.003743423295037629
	174	2	53.2533	56.1258	51.1076	0.0386669226290576	-0.34942659194452	-0.16075981650915594
	175	2	53.2533	56.1258	52.8924	0.03956074091684496	-0.3467174205895507	0.15319979632435501
	176	1	54.5066	57.6431	52.0	0.2441233613765024	-1.6455384939795954	0.00379849632381569
	177	2	54.5066	58.2742	52.8924	-0.04052793848760738	0.3401199699899006	0.1566800929263419
	178	2	54.5066	58.2742	51.1076	-0.0398378544108552	0.3425923941698053	-0.1641615401998703
	179	0	55.76	56.7569	52.0	-0.5016401645350428	0.8773801971155717	0.00306506344850151
	180	2	55.76	56.1258	52.8924	0.1598802935547022	-0.23386178030196011	0.14975523805570218
	181	2	55.76	56.1258	51.1076	0.16146280752355824	-0.23537214911733753	-0.15706215884961083
	182	2	56.6524	57.3879	52.0	0.3831064487005779	-0.07328127252422258	-0.000935932956852934
	183	0	52.0	47.2431	57.2	0.4995829220865611	-0.8767932142738336	0.0029428332062928714
	184	2	52.0	47.8742	58.0924	-0.15958883330529597	0.23376911774560338	0.14925078762403757
	185	2	52.0	47.8742	56.3076	-0.1620663996914358	0.23504721310534074	-0.15654834960259834
	186	2	51.1076	46.6121	57.2	-0.38301779706508454	0.07387509450025344	-0.0013011324436706657
	187	1	53.2533	46.3569	57.2	-0.24236015028054447	1.6453973404184419	0.00467688799289771
	188	2	53.2533	45.7258	56.3076	0.03968173702955717	-0.3426937984767618	-0.16508204653801792
	189	2	53.2533	45.7258	58.0924	0.04078427746842777	-0.34047056561101063	0.15696594817095183
	190	1	54.5066	47.2431	57.2	0.24673246539813645	-1.6542241431092628	0.0037883661775325174
	191	2	54.5066	47.8742	58.0924	-0.03991010240845854	0.34650407045285586	0.15258648538669312
	192	2	54.5066	47.8742	56.3076	-0.0388010827897317	0.34915626616274015	-0.1604230534228184
	193	0	55.76	46.3569	57.2	-0.5024478508683919	0.8732020517054176	0.003556864052827726
	194	2	55.76	45.7258	58.0924	0.16025901704391826	-0.2297340799349725	0.15101785537467183
	195	2	55.76	45.7258	56.3076	0.16235513457153744	-0.23076421811005268	-0.1586301203748215
	196	2	56.6524	46.9879	57.2	0.3805205874511266	-0.07200173734673937	-0.001273724484437513
	197	0	41.6	52.4431	57.2	0.5022685935590359	-0.8719493588444817	0.0032213865180489476
	198	2	41.6	53.0742	58.0924	-0.1604811089312128	0.22904049915798044	0.15081787497418828
	199	2	41.6	53.0742	56.3076	-0.1626365160967228	0.23012756155608333	-0.15845101733165254
	200	2	40.7076	51.8121	57.2	-0.3821811601106317	0.07422239910937298	-0.0011793135779608367
	201	1	42.8533	51.5569	57.2	-0.24255581122779052	1.6427921444735465	0.0045269926811441616
	202	2	42.8533	50.9258	56.3076	0.03986757636289416	-0.3421285157453358	-0.16523944947087468
	203	2	42.8533	50.9258	58.0924	0.04080001261950721	-0.3398855882297041	0.15693776888078342
	204	1	44.1066	52.4431	57.2	0.24477816991848173	-1.6435633211426262	0.004252604556438527
	205	2	44.1066	53.0742	58.0924	-0.04086809543006011	0.33980470132562585	0.15682109222130872
	206	2	44.1066	53.0742	56.3076	-0.0396988605763201	0.34202808845756405	-0.16497570571307574
	207	0	45.36	51.5569	57.2	-0.5040222915734589	0.8728915138708792	0.0033076213166117947
	208	2	45.36	50.9258	58.0924	0.1603971367033934	-0.22915635306445753	0.1509826312619613
	209	2	45.36	50.9258	56.3076	0.16294432856195668	-0.22999525258965386	-0.158466906748919
	210	2	46.2524	52.1879	57.2	0.38192117016338434	-0.0742645652005009	-0.0014364753117788423
	211	0	52.0	52.4431	57.2	0.5002119681753024	-0.8725143330435335	0.003532901371772099
	212	2	52.0	53.0742	58.0924	-0.15999861572017215	0.22988402666878838	0.15130180800297477
	213	2	52.0	53.0742	56.3076	-0.16245561328137154	0.2307417980908676	-0.15875245346115485
	214	2	51.1076	51.8121	57.2	-0.3808827530362656	0.07211419739710132	-0.0015064093165763803
	215	1	53.2533	51.5569	57.2	-0.24459479884413757	1.6532470210804664	0.003777670388563482
	216	2	53.2533	50.9258	56.3076	0.03856860364584224	-0.34910916355362653	-0.16028046004391872
	217	2	53.2533	50.9258	58.0924	0.03990398318303876	-0.346499545311369	0.15250328448980896
	218	1	54.5066	52.4431	57.2	0.2442272339424517	-1.646338775535966	0.004734275014481571
	219	2	54.5066	53.0742	58.0924	-0.0405375029912047	0.3404001688076519	0.15695088150668296
	220	2	54.5066	53.0742	56.3076	-0.03967782895281848	0.34271138482208585	-0.16513722241092066
	221	0	55.76	51.5569	57.2	-0.5010712308371899	0.8774642721875159	0.002995129443703972
	222	2	55.76	50.9258	58.0924	0.15945282195037727	-0.23373188817246116	0.1491970001468183
	223	2	55.76	50.9258	56.3076	0.1615423060319531	-0.23526940783675998	-0.1566642035090754
	224	2	56.6524	52.1879	57.2	0.38304757043918586	-0.07335115510695778	-0.001086393911292343
 Energy
 	-68849.97172032495
 Feature 	 EFS_by 	 Orca 6.0.0
END_CFG

