ITEM: TIMESTEP
0
ITEM: NUMBER OF ATOMS
5
ITEM: BOX BOUNDS pp pp pp
-9.2200000000000004e-02 4.9907800000000002e+01
1.0747000000000000e-01 5.0107469999999999e+01
-1.0300800000000001e+00 4.8969920000000002e+01
ITEM: ATOMS id type mass x y z fx fy fz c_pe
1 1 12.011 1 1 0 -0.211121 0.0261988 -0.133073 0.0594005
2 2 1.008 -0.092 1 0 1.36 -0.000795912 -0.00337175 0.0267977
3 2 1.008 1.363 1 -1.03008 -0.417055 0.000654605 1.41708 0.0286755
4 2 1.008 1.363 0.10747 0.5143 -0.361242 1.31264 -0.632423 0.0300726
5 2 1.008 1.363 1.89257 0.51433 -0.370583 -1.33869 -0.64821 0.0301065