BEGIN_CFG
 Size
112
 AtomData: 	 id 	 type 	 cartes_x 	 cartes_y 	 cartes_z 	 fx 	 fy 	 fz
	43	0	41.6	52.4431	46.8	0.5006048327316651	-0.8724020786814212	-0.0034433755612187805
	44	2	41.6	53.0742	47.6924	-0.16227491615426967	0.23086253709326804	0.15857386463860937
	45	2	41.6	53.0742	45.9076	-0.16024153354271892	0.22987420505487935	-0.15103667584949235
	46	2	40.7076	51.8121	46.8	-0.3808842956981361	0.0720088850134062	0.0012515101535018245
	47	1	42.8533	51.5569	46.8	-0.24455654082974834	1.6532158593106816	-0.0037450688010328657
	48	2	42.8533	50.9258	45.9076	0.0398995094636142	-0.3466934064864327	-0.15252380189268705
	49	2	42.8533	50.9258	47.6924	0.03883245024776589	-0.34918177150566626	0.16026925003432616
	50	1	44.1066	52.4431	46.8	0.24436658773142322	-1.646237988293758	-0.004489711685939593
	51	2	44.1066	53.0742	47.6924	-0.03955210201036997	0.34261980212903853	0.16486761653801368
	52	2	44.1066	53.0742	45.9076	-0.04067968499360557	0.3405245073544169	-0.15692805011099906
	53	0	45.36	51.5569	46.8	-0.5010101414271166	0.8776691376839227	-0.002916556532431444
	54	2	45.36	50.9258	47.6924	0.16180903226936844	-0.23515540512452754	0.15645820672729677
	55	2	45.36	50.9258	45.9076	0.15935861673214996	-0.233980822376303	-0.1492989700964606
	56	2	46.2524	52.1879	46.8	0.38313714767180157	-0.07346119832038918	0.001377802738636202
	71	0	52.0	57.6431	46.8	0.5005025542496485	-0.8719021019691812	-0.002889971326195909
	72	2	52.0	58.2742	47.6924	-0.16203071278016415	0.2308189311843943	0.15816449360023202
	73	2	52.0	58.2742	45.9076	-0.16006782981609677	0.22988562075272126	-0.15110347310848646
	74	2	51.1076	57.0121	46.8	-0.3805772031417752	0.07168621157215284	0.0012778382494256035
	75	1	53.2533	56.7569	46.8	-0.2442500653381356	1.6525044865001162	-0.00440774491855189
	76	2	53.2533	56.1258	45.9076	0.0398150230151713	-0.3468946210164127	-0.15262556615407993
	77	2	53.2533	56.1258	47.6924	0.03861164391203013	-0.3491112204361206	0.16052610323577007
	78	1	54.5066	57.6431	46.8	0.24393433387529964	-1.645179927938821	-0.0032308995995839066
	79	2	54.5066	58.2742	47.6924	-0.03980674406313277	0.3427916032393536	0.1640774651279262
	80	2	54.5066	58.2742	45.9076	-0.04048798354516055	0.34031815061820186	-0.15684608334361136
	81	0	55.76	56.7569	46.8	-0.5015306355422349	0.8770548497270761	-0.0034792167386775187
	82	2	55.76	56.1258	47.6924	0.16142346964585963	-0.2353593450238121	0.15684706036279603
	83	2	55.76	56.1258	45.9076	0.15968735797676076	-0.23405944670963788	-0.14930750615881086
	84	2	56.6524	57.3879	46.8	0.3829961483768347	-0.07303130987913373	0.001098940894506019
	99	0	41.6	47.2431	52.0	0.4997874276285315	-0.8767146927846233	0.0030827012158879475
	100	2	41.6	47.8742	52.8924	-0.15988168195038566	0.23401738346263462	0.1496514683338776
	101	2	41.6	47.8742	51.1076	-0.16147262913746732	0.23546733135474948	-0.1569349920894165
	102	2	40.7076	46.6121	52.0	-0.38347751030250365	0.0733729066393323	-0.0009527479712417537
	103	1	42.8533	46.3569	52.0	-0.24205619446998694	1.6448249100203487	0.0037018742686579145
	104	2	42.8533	45.7258	51.1076	0.03992532333891448	-0.3426354858580556	-0.16415320982576942
	105	2	42.8533	45.7258	52.8924	0.040582702984011336	-0.3402254366397828	0.15675311225488053
	106	1	44.1066	47.2431	52.0	0.24665404675305097	-1.6544584734473966	0.0038000389856862244
	107	2	44.1066	47.8742	52.8924	-0.039664716326918946	0.3467969705200079	0.1531513053195579
	108	2	44.1066	47.8742	51.1076	-0.03872024730771573	0.3493607717047106	-0.16064817921179161
	109	0	45.36	46.3569	52.0	-0.5018689927125052	0.873087431928437	0.0030133842758386232
	110	2	45.36	45.7258	52.8924	0.1601536532381608	-0.22955775368317047	0.15098036869121786
	111	2	45.36	45.7258	51.1076	0.1618390113317191	-0.2307222577071742	-0.15813477164819303
	112	2	46.2524	46.9879	52.0	0.3805601310170746	-0.07191015465369202	-0.00099439984174617
	127	0	41.6	52.4431	52.0	0.49648535989465364	-0.8816835038254884	-0.0003422652470091274
	128	2	41.6	53.0742	52.8924	-0.1600761087681353	0.2367117966857092	0.1554952771877095
	129	2	41.6	53.0742	51.1076	-0.1603094106650224	0.2366224251413429	-0.15525143376804043
	130	2	40.7076	51.8121	52.0	-0.38155674200750184	0.0719664618119665	-9.61078345342637e-05
	131	1	42.8533	51.5569	52.0	-0.24449020636931537	1.661237238238897	0.0004912349616403537
	132	2	42.8533	50.9258	51.1076	0.03887173670340216	-0.3500736357550843	-0.15915935624053934
	133	2	42.8533	50.9258	52.8924	0.03915296396240049	-0.3499544394145544	0.1591066486266294
	134	1	44.1066	52.4431	52.0	0.24686935092811513	-1.6616953059703208	-0.0005551525851428095
	135	2	44.1066	53.0742	52.8924	-0.039079533257363075	0.34938853961838023	0.15860471787602
	136	2	44.1066	53.0742	51.1076	-0.03900584544201391	0.3494972458581905	-0.1582939229311698
	137	0	45.36	51.5569	52.0	-0.49875451266208437	0.8826563064010471	0.00015292921343226337
	138	2	45.36	50.9258	52.8924	0.16047946342521757	-0.23671884150825132	0.1558073576841185
	139	2	45.36	50.9258	51.1076	0.16070551481131315	-0.23676296163774857	-0.15574847942272646
	140	2	46.2524	52.1879	52.0	0.3810828362808738	-0.07232919303979138	-0.00013313171942707798
	141	0	52.0	52.4431	52.0	0.49606714426155185	-0.8823261253386905	0.00022671987290613622
	142	2	52.0	53.0742	52.8924	-0.16025222933168792	0.23638521516771716	0.15562496362895908
	143	2	52.0	53.0742	51.1076	-0.16047087594080495	0.23643627727563182	-0.15559102506780728
	144	2	51.1076	51.8121	52.0	-0.38123278301468977	0.07284120251462159	-0.00015909986091439907
	145	1	53.2533	51.5569	52.0	-0.2449219974268778	1.6619055707832746	-0.0006430328897008921
	146	2	53.2533	50.9258	51.1076	0.03881923477774165	-0.35028729442415324	-0.1588397167009647
	147	2	53.2533	50.9258	52.8924	0.038917605183019365	-0.350110196841416	0.15917288024293771
	148	1	54.5066	52.4431	52.0	0.24694010768591027	-1.6624873599967152	0.0005324754556459607
	149	2	54.5066	53.0742	52.8924	-0.0391831487130006	0.34958769726586614	0.15870139135324016
	150	2	54.5066	53.0742	51.1076	-0.0388988361302612	0.34973008495651636	-0.1587551274083971
	151	0	55.76	51.5569	52.0	-0.49854183101220007	0.8826964156096809	-0.0003889050575616032
	152	2	55.76	50.9258	52.8924	0.16039878220938866	-0.2366796064746774	0.15595205936757459
	153	2	55.76	50.9258	51.1076	0.16064643086167169	-0.23663348088474842	-0.15570600479922442
	154	2	56.6524	52.1879	52.0	0.38119827881085216	-0.07237742693427675	-8.89601678674565e-05
	155	0	41.6	57.6431	52.0	0.500867548048217	-0.8677202027484754	-1.1364275779599933e-05
	156	2	41.6	58.2742	52.8924	-0.16056641813265335	0.22901849051529416	0.15212728636989747
	157	2	41.6	58.2742	51.1076	-0.16058199901754572	0.22892433671912923	-0.1520611575977139
	158	2	40.7076	57.0121	52.0	-0.3815612157269264	0.07071032367285308	-4.442866187137712e-05
	159	1	42.8533	56.7569	52.0	-0.24384249407194047	1.6486154873465626	-8.026983933011538e-05
	160	2	42.8533	56.1258	51.1076	0.0395082904132468	-0.34638441131376474	-0.1547532568279827
	161	2	42.8533	56.1258	52.8924	0.0395128155547337	-0.34650982972383915	0.15485898058817663
	162	1	44.1066	57.6431	52.0	0.2438699020311737	-1.6405626381161884	-0.000128040935254316
	163	2	44.1066	58.2742	52.8924	-0.04050346158592825	0.33992158367334996	0.1581070551565858
	164	2	44.1066	58.2742	51.1076	-0.04037788890966678	0.33978603511699235	-0.15797798578008446
	165	0	45.36	56.7569	52.0	-0.5026099846309852	0.8731971666094943	3.6921040768112005e-05
	166	2	45.36	56.1258	52.8924	0.16051191074656113	-0.23322430099499314	0.15107436822119572
	167	2	45.36	56.1258	51.1076	0.16069965269620512	-0.23298323436669105	-0.15092622125956212
	168	2	46.2524	57.3879	52.0	0.38388472161426224	-0.07256573452660658	-0.00020681953477624858
	169	0	52.0	57.6431	52.0	0.49972602968608415	-0.8723074106646326	0.0031604513741628577
	170	2	52.0	58.2742	52.8924	-0.16005795678012538	0.22958264196134842	0.15103055662407255
	171	2	52.0	58.2742	51.1076	-0.16154287167463893	0.2308158972827156	-0.15833881439160233
	172	2	51.1076	57.0121	52.0	-0.3809224508684007	0.07183045045704776	-0.0009322305683636524
	173	1	53.2533	56.7569	52.0	-0.2444033545060043	1.6534987834977377	0.003743423295037629
	174	2	53.2533	56.1258	51.1076	0.0386669226290576	-0.34942659194452	-0.16075981650915594
	175	2	53.2533	56.1258	52.8924	0.03956074091684496	-0.3467174205895507	0.15319979632435501
	176	1	54.5066	57.6431	52.0	0.2441233613765024	-1.6455384939795954	0.00379849632381569
	177	2	54.5066	58.2742	52.8924	-0.04052793848760738	0.3401199699899006	0.1566800929263419
	178	2	54.5066	58.2742	51.1076	-0.0398378544108552	0.3425923941698053	-0.1641615401998703
	179	0	55.76	56.7569	52.0	-0.5016401645350428	0.8773801971155717	0.00306506344850151
	180	2	55.76	56.1258	52.8924	0.1598802935547022	-0.23386178030196011	0.14975523805570218
	181	2	55.76	56.1258	51.1076	0.16146280752355824	-0.23537214911733753	-0.15706215884961083
	182	2	56.6524	57.3879	52.0	0.3831064487005779	-0.07328127252422258	-0.000935932956852934
	197	0	41.6	52.4431	57.2	0.5022685935590359	-0.8719493588444817	0.0032213865180489476
	198	2	41.6	53.0742	58.0924	-0.1604811089312128	0.22904049915798044	0.15081787497418828
	199	2	41.6	53.0742	56.3076	-0.1626365160967228	0.23012756155608333	-0.15845101733165254
	200	2	40.7076	51.8121	57.2	-0.3821811601106317	0.07422239910937298	-0.0011793135779608367
	201	1	42.8533	51.5569	57.2	-0.24255581122779052	1.6427921444735465	0.0045269926811441616
	202	2	42.8533	50.9258	56.3076	0.03986757636289416	-0.3421285157453358	-0.16523944947087468
	203	2	42.8533	50.9258	58.0924	0.04080001261950721	-0.3398855882297041	0.15693776888078342
	204	1	44.1066	52.4431	57.2	0.24477816991848173	-1.6435633211426262	0.004252604556438527
	205	2	44.1066	53.0742	58.0924	-0.04086809543006011	0.33980470132562585	0.15682109222130872
	206	2	44.1066	53.0742	56.3076	-0.0396988605763201	0.34202808845756405	-0.16497570571307574
	207	0	45.36	51.5569	57.2	-0.5040222915734589	0.8728915138708792	0.0033076213166117947
	208	2	45.36	50.9258	58.0924	0.1603971367033934	-0.22915635306445753	0.1509826312619613
	209	2	45.36	50.9258	56.3076	0.16294432856195668	-0.22999525258965386	-0.158466906748919
	210	2	46.2524	52.1879	57.2	0.38192117016338434	-0.0742645652005009	-0.0014364753117788423
 Energy
 	-68849.97172032495
 Feature 	 EFS_by 	 Orca 6.0.0
END_CFG
