2554
 Atoms. Timestep: 2584
C -17.4341 24.8995 -24.9188
C -17.8019 26.0487 -24.2168
C -18.8525 25.97 -23.3011
C -19.551 24.7805 -23.1332
C -19.2147 23.6497 -23.8682
C -18.1257 23.7015 -24.7417
S -16.9419 27.5349 -24.5159
O -15.3888 27.2341 -24.3365
O -17.2922 28.6783 -23.4617
C -17.2675 28.1461 -26.1166
C -18.4553 27.822 -26.7749
C -18.7492 28.3835 -28.0171
C -17.8357 29.2326 -28.6347
C -16.6161 29.4941 -28.0206
C -16.3531 28.9884 -26.7516
H -16.6502 24.9348 -25.5732
H -19.1348 26.7774 -22.7462
H -20.325 24.7451 -22.4667
O -20.0106 22.5592 -23.7211
H -17.8346 22.8748 -25.2673
H -19.1205 27.1783 -26.3457
H -19.6351 28.1706 -28.4802
H -18.0588 29.665 -29.5339
H -15.9149 30.0634 -28.4966
H -15.4795 29.2432 -26.2917
C -23.3925 9.9588 -23.1684
C -23.6096 11.213 -22.5866
C -24.8708 11.5768 -22.1148
C -25.9289 10.6692 -22.1452
C -25.7259 9.43123 -22.7492
C -24.4799 9.08668 -23.2685
O -27.1407 10.9735 -21.5999
C -22.0557 9.55459 -23.6634
C -21.1583 10.6905 -23.941
C -19.8798 10.8409 -23.3843
C -19.0402 11.8561 -23.838
C -19.4645 12.6793 -24.8792
C -20.7658 12.6027 -25.3529
C -21.6147 11.6255 -24.868
O -18.639 13.5418 -25.5006
C -18.1734 14.4775 -24.652
C -18.9715 15.1231 -23.7073
C -18.4239 16.151 -22.9498
C -17.1214 16.5827 -23.1849
C -16.3125 15.8881 -24.0867
C -16.8316 14.8098 -24.7871
S -16.5964 17.9987 -22.3288
C -17.7341 19.2844 -22.6063
C -17.8879 20.344 -21.7108
C -18.6369 21.4622 -22.0741
C -19.2901 21.4921 -23.307
C -19.2468 20.3786 -24.1378
C -18.4606 19.2865 -23.7956
O -16.4129 17.6447 -20.7878
O -15.2138 18.5521 -22.8917
O -22.1227 8.86247 -24.9321
C -21.2759 7.83599 -24.8423
O -20.9617 7.19391 -25.8306
C -20.8585 7.59909 -23.5702
C -20.0354 6.62249 -23.0125
C -19.9407 6.57554 -21.6213
C -20.6074 7.51263 -20.8254
C -21.3253 8.55718 -21.4084
C -21.4236 8.57489 -22.7929
H -22.8467 11.8859 -22.4921
H -25.0099 12.5154 -21.7372
H -26.496 8.76274 -22.8148
H -24.3792 8.17707 -23.7213
H -19.5254 10.2065 -22.6671
H -18.1128 11.9794 -23.4225
H -21.0967 13.2434 -26.0757
H -22.5713 11.5877 -25.2223
H -19.9534 14.8694 -23.5732
H -18.9865 16.6092 -22.2322
H -15.3461 16.1589 -24.2618
H -16.2302 14.2785 -25.4207
H -17.4361 20.3197 -20.7963
H -18.698 22.2589 -21.4345
H -19.7822 20.3649 -25.0082
H -18.4067 18.4958 -24.4365
H -19.5224 5.9559 -23.591
H -19.3798 5.8486 -21.1772
H -20.5629 7.43996 -19.8067
H -21.7651 9.28494 -20.8395
C -18.6086 8.05856 -13.5125
C -19.8113 8.41199 -12.8993
C -20.1144 9.74189 -12.6455
C -19.2765 10.7484 -13.1086
C -18.0715 10.4149 -13.7233
C -17.7171 9.0753 -13.8808
O -19.6463 12.0362 -12.9351
C -18.2854 6.6244 -13.6551
C -19.4775 5.7362 -13.7509
C -19.8462 4.82843 -12.7489
C -21.0666 4.15802 -12.8134
C -21.9454 4.39896 -13.8626
C -21.4867 5.10528 -14.972
C -20.2736 5.78591 -14.901
O -23.2274 3.96385 -13.7556
C -24.0862 5.02968 -13.8114
C -25.3805 4.77917 -14.2527
C -26.2638 5.81941 -14.5054
C -25.8875 7.1551 -14.3171
C -24.6282 7.39149 -13.7445
C -23.7534 6.34454 -13.4667
S -26.9553 8.49118 -14.8379
C -26.9737 9.39353 -17.4754
C -26.4846 10.668 -18.0004
C -26.578 11.199 -19.2875
C -27.1222 10.4869 -20.3271
C -27.6223 9.25376 -19.9682
C -27.5162 8.75123 -18.6656
O -28.1451 7.91079 -13.8366
O -26.7766 9.27516 -13.3793
O -17.4553 6.29316 -14.7872
C -16.5613 5.42638 -14.3109
O -15.9167 4.6986 -15.0498
C -16.4527 5.47919 -12.9567
C -15.5779 4.87741 -12.0596
C -15.6962 5.21345 -10.7098
C -16.6351 6.15604 -10.2806
C -17.5268 6.72481 -11.1876
C -17.4414 6.31129 -12.5142
H -20.4798 7.70008 -12.6057
H -20.9577 9.97218 -12.1181
H -17.4399 11.1501 -14.051
H -16.7941 8.85529 -14.2627
H -19.2446 4.64602 -11.9466
H -21.3309 3.49994 -12.076
H -22.0411 5.14736 -15.8301
H -19.9785 6.33806 -15.7087
H -25.6895 3.81993 -14.4164
H -27.1909 5.57456 -14.8563
H -24.3055 8.33961 -13.5424
H -22.8611 6.57031 -13.0238
H -25.9994 11.3685 -17.4381
H -26.235 12.1465 -19.4667
H -28.0915 8.69221 -20.6838
H -27.909 7.80908 -18.6696
H -14.8673 4.21496 -12.3749
H -15.0785 4.77121 -10.0284
H -16.6725 6.42457 -9.29587
H -18.2152 7.41456 -10.8788
C -28.3972 9.64463 -15.9466
C -28.3158 8.11585 -16.4372
C -26.8939 7.42105 -16.6724
C -25.5366 8.2325 -16.4385
C -25.5955 9.73148 -15.8911
C -27.0286 10.4555 -15.6557
O -24.3371 7.63513 -16.7061
C -29.7132 10.3098 -15.9017
C -29.3426 11.7321 -16.0812
C -28.9603 12.2123 -17.3415
C -28.3003 13.4353 -17.4657
C -28.0613 14.2287 -16.3421
C -28.5313 13.799 -15.1102
C -29.1959 12.5891 -14.9899
O -27.4297 15.4318 -16.3939
C -26.1221 15.258 -16.7045
C -25.17 14.9604 -15.7302
C -23.8392 14.8074 -16.0963
C -23.4581 14.8562 -17.4348
C -24.4068 15.1843 -18.4039
C -25.7241 15.4248 -18.0277
S -21.7989 14.5286 -17.828
C -21.0841 13.7033 -16.4654
C -21.7564 12.625 -15.8835
C -21.2823 12.0399 -14.7099
C -20.1016 12.5035 -14.126
C -19.3849 13.5157 -14.7555
C -19.8757 14.1187 -15.9073
O -21.1257 15.9398 -18.1397
O -21.7113 13.609 -19.1253
O -30.4757 9.82339 -17.035
C -31.5817 9.25199 -16.5648
O -32.3776 8.704 -17.3128
C -31.7124 9.3603 -15.218
C -32.7543 8.97422 -14.3727
C -32.6503 9.28425 -13.019
C -31.489 9.87621 -12.5258
C -30.42 10.1636 -13.3734
C -30.574 9.97108 -14.7482
H -29.161 7.56047 -16.5968
H -26.8831 6.45321 -16.9926
H -24.7255 10.2356 -15.7015
H -27.0221 11.4213 -15.3233
H -29.1323 11.6696 -18.1921
H -27.9934 13.7395 -18.3912
H -28.3891 14.3716 -14.2783
H -29.5317 12.3492 -14.0721
H -25.4288 14.8652 -14.7457
H -23.1437 14.6578 -15.3673
H -24.1477 15.2601 -19.3877
H -26.4049 15.7247 -18.7279
H -22.6183 12.2748 -16.3071
H -21.814 11.2807 -14.2789
H -18.4952 13.8314 -14.3671
H -19.3405 14.877 -16.3253
H -33.5847 8.49106 -14.7242
H -33.4251 9.07444 -12.3871
H -31.4205 10.0998 -11.5322
H -29.5526 10.5106 -12.9679
C -17.4312 -1.19748 -20.1265
C -17.3511 -1.43254 -18.7452
C -17.5322 -2.71208 -18.2094
C -17.803 -3.79867 -19.0472
C -17.9137 -3.55296 -20.4145
C -17.6791 -2.29257 -20.9536
O -18.0028 -5.1014 -18.6668
C -17.3415 0.153473 -20.739
C -18.3838 0.29018 -21.7731
C -19.7145 0.06208 -21.4123
C -20.7425 0.341425 -22.3031
C -20.4423 0.903224 -23.5421
C -19.1235 0.952051 -23.9749
C -18.0965 0.658389 -23.0911
O -21.3952 1.42109 -24.3475
C -22.2832 2.18619 -23.6444
C -22.0059 2.90378 -22.4687
C -23.008 3.64644 -21.8405
C -24.2964 3.67113 -22.3677
C -24.5641 2.9666 -23.5403
C -23.5656 2.24296 -24.1767
S -25.5762 4.56834 -21.6098
C -25.1182 5.41881 -20.1503
C -25.0167 4.77155 -18.9135
C -24.7055 5.49186 -17.757
C -24.5257 6.87667 -17.8154
C -24.5868 7.5144 -19.0464
C -24.8638 6.79055 -20.1974
O -26.1644 5.55942 -22.7116
O -26.7638 3.55888 -21.2939
O -17.6491 1.19336 -19.7806
C -16.6119 2.02776 -19.7545
O -16.6136 3.00574 -19.0224
C -15.61 1.67204 -20.6002
C -14.3844 2.27521 -20.8784
C -13.5657 1.68063 -21.8371
C -13.9712 0.515791 -22.4936
C -15.194 -0.0853475 -22.1887
C -16.0063 0.518533 -21.23
H -17.162 -0.667434 -18.0957
H -17.4782 -2.83277 -17.197
H -18.1766 -4.3126 -21.0458
H -17.7152 -2.18259 -21.9686
H -19.9523 -0.286151 -20.4816
H -21.7116 0.161507 -22.0313
H -18.9008 1.22668 -24.9345
H -17.1458 0.747403 -23.4392
H -21.074 2.89469 -22.0463
H -22.7969 4.17149 -20.9914
H -25.5007 2.97002 -23.9459
H -23.7834 1.74885 -25.0452
H -25.1802 3.7652 -18.8422
H -24.6338 5.00075 -16.8626
H -24.4381 8.52183 -19.1131
H -24.8865 7.29536 -21.0795
H -14.0871 3.12954 -20.405
H -12.6613 2.09948 -22.0616
H -13.3667 0.102312 -23.2083
H -15.4881 -0.933969 -22.676
C -7.29219 -5.12558 -7.77293
C -7.1565 -3.7387 -7.93413
C -6.01705 -3.17892 -8.53089
C -4.97243 -3.97406 -9.00176
C -5.08515 -5.35057 -8.80658
C -6.19218 -5.90257 -8.15823
O -3.92594 -3.42698 -9.7057
C -8.55376 -5.81328 -7.33303
C -9.10597 -6.38078 -8.58464
C -9.51029 -7.71042 -8.77216
C -10.0088 -8.13199 -10.0087
C -10.0671 -7.25203 -11.0884
C -9.60035 -5.95733 -10.9162
C -9.18961 -5.51371 -9.67438
O -10.5273 -7.64238 -12.3032
C -11.8426 -7.30946 -12.4663
C -12.2922 -5.98929 -12.5129
C -13.6206 -5.68721 -12.7935
C -14.5673 -6.70009 -12.9515
C -14.125 -8.02146 -12.8761
C -12.7821 -8.32209 -12.6426
S -16.2608 -6.35113 -13.2182
C -16.7275 -6.26586 -14.8883
C -15.7908 -5.80278 -15.8059
C -16.1973 -5.38402 -17.0709
C -17.5368 -5.49735 -17.4489
C -18.4284 -6.14066 -16.5893
C -18.0305 -6.52732 -15.3127
O -17.2334 -7.21812 -12.3005
O -16.5891 -4.85557 -12.7786
O -8.23901 -6.79782 -6.31565
C -8.80625 -6.39335 -5.17711
O -8.62047 -6.98816 -4.12586
C -9.60979 -5.30933 -5.33295
C -10.3741 -4.58645 -4.41479
C -11.17 -3.55005 -4.8997
C -11.2366 -3.30044 -6.27109
C -10.4815 -4.05144 -7.17053
C -9.58391 -4.99275 -6.6687
H -7.90774 -3.11101 -7.64615
H -5.95875 -2.16561 -8.6506
H -4.36213 -5.97853 -9.1598
H -6.19277 -6.90914 -7.98745
H -9.4476 -8.39501 -8.01496
H -10.3237 -9.09764 -10.1216
H -9.54693 -5.30996 -11.6938
H -8.93914 -4.52965 -9.59349
H -11.6603 -5.21438 -12.3521
H -13.8791 -4.70526 -12.8825
H -14.79 -8.78494 -12.9976
H -12.4851 -9.29881 -12.6071
H -14.8115 -5.73261 -15.5348
H -15.5086 -4.98731 -17.7129
H -19.3909 -6.31736 -16.886
H -18.7102 -6.97152 -14.6918
H -10.3604 -4.79819 -3.41423
H -11.7159 -2.97796 -4.24992
H -11.8454 -2.55742 -6.61886
H -10.6073 -3.90341 -8.16723
C 4.23727 -6.70559 -0.83
C 3.76423 -7.97205 -1.20265
C 2.56727 -8.40728 -0.618232
C 1.84466 -7.58882 0.243711
C 2.25531 -6.28272 0.47904
C 3.48682 -5.86295 -0.0125524
O 1.45525 -5.42838 1.16221
C 4.53943 -8.77609 -2.19389
C 4.65421 -7.9922 -3.44807
C 3.58829 -7.19136 -3.87375
C 3.68754 -6.42305 -5.02867
C 4.85298 -6.4565 -5.80709
C 5.88428 -7.30307 -5.42267
C 5.78926 -8.05371 -4.25986
C 5.89671 -9.12458 -1.53
C 3.88917 -10.1034 -2.64987
O 5.06228 -5.71802 -6.93198
C 4.15374 -4.72701 -6.94423
C 4.33284 -3.58472 -6.1712
C 3.33936 -2.60852 -6.14786
C 2.17741 -2.74583 -6.91457
C 2.02884 -3.89142 -7.70157
C 3.00578 -4.88243 -7.71009
S 0.947796 -1.49974 -6.89957
C -0.516864 -1.97435 -7.72093
O 0.512433 -1.18831 -5.39994
O 1.57784 -0.143619 -7.44619
C -1.09713 -1.2589 -8.76969
C -2.24833 -1.74443 -9.39799
C -2.86388 -2.93465 -8.98716
C -2.29957 -3.61853 -7.9111
C -1.14689 -3.1384 -7.29219
H 5.1412 -6.36597 -1.16354
H 2.1801 -9.32748 -0.806867
H 1.00108 -7.94989 0.69284
H 3.84035 -4.93012 0.215768
H 2.71003 -7.15525 -3.34919
H 2.88017 -5.84537 -5.27342
H 6.72633 -7.37972 -5.99599
H 6.57575 -8.65319 -4.03027
H 5.71493 -9.51825 -0.530127
H 6.53158 -8.24232 -1.45211
H 6.43808 -9.88447 -2.09566
H 3.64135 -10.7306 -1.79571
H 4.58354 -10.6572 -3.28404
H 2.99179 -9.90319 -3.23596
H 5.18306 -3.4669 -5.61399
H 3.47124 -1.78574 -5.56035
H 1.20037 -4.018 -8.28146
H 2.87533 -5.72925 -8.26849
H -0.68912 -0.378596 -9.09029
H -2.63909 -1.2131 -10.1812
H -2.71777 -4.48315 -7.57048
H -0.749842 -3.6525 -6.50828
C -3.04096 5.29381 -9.01013
C -2.60145 5.28486 -7.67916
C -3.14466 6.21945 -6.7945
C -4.00989 7.20707 -7.23377
C -4.3406 7.287 -8.57874
C -3.86799 6.32059 -9.46604
O -5.11859 8.31522 -8.98605
C -1.57444 4.36865 -7.12546
C -2.17778 3.644 -5.97252
C -1.45296 3.31279 -4.82328
C -2.05228 2.6319 -3.76286
C -3.39419 2.26326 -3.8155
C -4.12151 2.57596 -4.96227
C -3.51838 3.24061 -6.02903
C -1.06512 3.25925 -8.06857
C -0.375709 5.3128 -6.81011
O -3.99622 1.63825 -2.76228
C -3.76572 0.292659 -2.762
C -3.95503 -0.484899 -3.90574
C -3.72466 -1.8566 -3.87659
C -3.24556 -2.4679 -2.72091
C -3.10747 -1.70963 -1.56102
C -3.36246 -0.339117 -1.58258
S -2.82405 -4.15186 -2.71738
C -1.594 -4.45853 -1.52083
O -4.14926 -5.01029 -2.51812
O -2.23386 -4.5978 -4.12931
C -1.86651 -5.17839 -0.358832
C -0.845559 -5.50252 0.530995
C 0.464776 -5.09346 0.288365
C 0.73362 -4.33549 -0.85257
C -0.294944 -3.98966 -1.72763
H -2.76466 4.56815 -9.67425
H -2.90893 6.1977 -5.80348
H -4.39055 7.87596 -6.56407
H -4.12209 6.36361 -10.4571
H -0.466676 3.55973 -4.74163
H -1.4957 2.40867 -2.93789
H -5.10922 2.31977 -5.02811
H -4.08362 3.42619 -6.85986
H -1.89787 2.64764 -8.41184
H -0.37477 2.61836 -7.51685
H -0.540516 3.68187 -8.9255
H -0.142881 5.90511 -7.69919
H 0.519064 4.75732 -6.53423
H -0.610233 6.00645 -6.00329
H -4.26897 -0.0635982 -4.78009
H -3.91066 -2.40993 -4.71443
H -2.81902 -2.15855 -0.691125
H -3.25209 0.201503 -0.722409
H -2.8164 -5.47845 -0.147492
H -1.068 -6.04811 1.36551
H 1.68623 -4.02697 -1.05817
H -0.0864795 -3.39023 -2.52951
C -8.47276 5.02703 -18.0139
C -7.95499 6.32089 -18.1075
C -7.26412 6.83951 -17.0024
C -6.98864 6.04147 -15.9008
C -7.50397 4.75441 -15.8214
C -8.27303 4.26329 -16.8743
O -7.26364 4.0186 -14.7103
C -8.15012 7.08475 -19.3612
C -7.44861 8.39248 -19.1737
C -6.06954 8.52017 -19.4147
C -5.3788 9.67984 -19.0771
C -6.044 10.7278 -18.4501
C -7.41613 10.6523 -18.2712
C -8.11455 9.51489 -18.6574
C -7.51093 6.23126 -20.4979
C -9.69068 7.21995 -19.5306
O -5.38783 11.8296 -18.0294
C -4.87572 11.7061 -16.7712
C -4.46468 10.505 -16.1838
C -3.73175 10.5252 -14.9973
C -3.43009 11.7295 -14.3601
C -3.9764 12.9052 -14.8709
C -4.72098 12.8838 -16.0449
S -2.41196 11.7118 -12.9452
C -3.13542 10.6477 -11.7843
O -0.930825 11.2623 -13.3199
O -2.31946 13.123 -12.2159
C -2.41106 10.1056 -10.724
C -3.05898 9.33594 -9.76166
C -4.42467 9.05903 -9.88439
C -5.13328 9.56943 -10.9658
C -4.49285 10.3634 -11.9049
H -9.00986 4.61286 -18.7769
H -6.93798 7.80426 -16.9591
H -6.40913 6.41311 -15.1467
H -8.70314 3.34149 -16.8332
H -5.51965 7.76372 -19.822
H -4.37805 9.74726 -19.2783
H -7.91845 11.4342 -17.8471
H -9.12254 9.53266 -18.5201
H -7.06814 6.86053 -21.2683
H -8.23587 5.57649 -20.9793
H -6.72648 5.59691 -20.0755
H -9.9436 8.03838 -20.2023
H -10.1455 7.40234 -18.554
H -10.1379 6.30783 -19.9241
H -4.67478 9.60113 -16.6086
H -3.4059 9.64358 -14.5932
H -3.83444 13.7975 -14.4016
H -5.14294 13.752 -16.3814
H -1.40878 10.2783 -10.6382
H -2.51801 8.98636 -8.9683
H -6.12955 9.37154 -11.073
H -5.03626 10.743 -12.6778
C -6.71101 -1.01437 -21.7801
C -6.72966 -2.01728 -22.7602
C -7.84154 -2.87196 -22.7731
C -8.90006 -2.69849 -21.884
C -8.86601 -1.69253 -20.9245
C -7.76135 -0.848062 -20.882
O -9.91215 -1.5362 -20.073
C -5.6444 -2.11098 -23.7832
C -4.39123 -1.43886 -23.2945
C -4.16567 -0.0521608 -23.4038
C -3.03211 0.549835 -22.859
C -2.13304 -0.201352 -22.1128
C -2.30256 -1.57783 -22.0442
C -3.38536 -2.18429 -22.6635
C -5.3522 -3.57783 -24.2284
C -6.23205 -1.36964 -25.0041
O -1.12973 0.402818 -21.4316
C -1.59803 0.331159 -20.1616
C -1.05639 -0.598176 -19.2768
C -1.58459 -0.732832 -17.9977
C -2.62919 0.0857899 -17.5771
C -3.14959 1.03871 -18.4529
C -2.63963 1.15807 -19.7421
S -3.26772 -0.0993983 -15.9736
C -4.41923 1.1616 -15.6576
O -3.93615 -1.54037 -15.8348
O -2.09906 -0.0661987 -14.8933
C -4.01963 2.389 -15.1245
C -4.96677 3.36327 -14.8222
C -6.32009 3.10669 -15.0363
C -6.71352 1.88841 -15.5804
C -5.76515 0.945734 -15.9428
H -5.93338 -0.362509 -21.6991
H -7.9134 -3.63687 -23.4417
H -9.71219 -3.31417 -21.9459
H -7.71233 -0.0962714 -20.1898
H -4.82832 0.56892 -23.8672
H -2.86958 1.55238 -22.9901
H -1.63892 -2.15811 -21.5286
H -3.40915 -3.19743 -22.6165
H -5.28901 -4.23639 -23.3607
H -4.41097 -3.61819 -24.7798
H -6.12573 -3.97992 -24.8832
H -5.43986 -1.13458 -25.7143
H -6.71744 -0.449465 -24.6775
H -6.9936 -1.97199 -25.5012
H -0.274361 -1.19162 -19.5629
H -1.20249 -1.43862 -17.3671
H -3.90862 1.65328 -18.1611
H -3.03772 1.85133 -20.3776
H -3.03329 2.58516 -14.9488
H -4.66248 4.25885 -14.4355
H -7.6998 1.66805 -15.7146
H -6.07643 0.0952316 -16.4116
C -3.43471 -7.60672 -17.5189
C -2.53181 -8.61553 -17.1683
C -2.56131 -9.7942 -17.9245
C -3.55871 -10.0068 -18.8772
C -4.47317 -9.00557 -19.201
C -4.38048 -7.78964 -18.5234
O -5.42036 -9.22833 -20.165
C -1.61488 -8.36748 -16.0233
C -2.42897 -7.65234 -14.9863
C -3.48485 -8.32411 -14.3526
C -4.27923 -7.70905 -13.3916
C -4.05106 -6.38943 -13.0324
C -3.04716 -5.68048 -13.6898
C -2.22962 -6.31051 -14.6267
C -1.05682 -9.6691 -15.3891
C -0.401619 -7.57241 -16.5728
O -4.8004 -5.84491 -12.0417
C -5.74296 -5.08925 -12.6396
C -6.96495 -5.63921 -13.0159
C -7.9153 -4.83915 -13.6395
C -7.7072 -3.46705 -13.7873
C -6.45013 -2.94123 -13.48
C -5.4852 -3.74468 -12.8827
S -9.03708 -2.4508 -14.2789
C -9.24509 -2.21114 -15.9931
O -10.3762 -3.06555 -13.6761
O -8.96177 -1.05349 -13.522
C -10.4941 -1.85408 -16.5017
C -10.6839 -1.65939 -17.8645
C -9.62559 -1.79304 -18.7614
C -8.37497 -2.16932 -18.2551
C -8.18731 -2.36712 -16.8863
H -3.42027 -6.70419 -17.0399
H -1.86119 -10.5234 -17.7991
H -3.61584 -10.913 -19.3444
H -5.00856 -7.01519 -18.7493
H -3.70898 -9.28939 -14.5795
H -5.03584 -8.23319 -12.9475
H -2.89487 -4.69071 -13.4908
H -1.48984 -5.74869 -15.0427
H -0.337106 -10.1557 -16.0484
H -1.8573 -10.3802 -15.1955
H -0.558468 -9.43644 -14.447
H 0.245563 -7.24249 -15.7575
H -0.73588 -6.7053 -17.1419
H 0.187527 -8.2002 -17.2441
H -7.18026 -6.62282 -12.8345
H -8.77891 -5.27273 -13.9707
H -6.22735 -1.96483 -13.6725
H -4.58907 -3.33824 -12.6129
H -11.2928 -1.72701 -15.8803
H -11.6189 -1.41402 -18.2006
H -7.57309 -2.30974 -18.8672
H -7.26481 -2.63079 -16.5379
C -13.2939 -3.62385 -26.971
C -12.6934 -4.74097 -27.5689
C -11.5767 -4.54198 -28.385
C -11.0011 -3.28503 -28.4973
C -11.5716 -2.19474 -27.8441
C -12.7338 -2.36024 -27.1035
O -11.0265 -0.963048 -27.9339
C -13.253 -6.08619 -27.3016
C -13.4029 -6.16262 -25.83
C -14.5063 -6.78257 -25.2444
C -14.7759 -6.60331 -23.8933
C -13.9422 -5.81266 -23.108
C -12.7368 -5.35988 -23.6428
C -12.4508 -5.57306 -24.9884
C -14.5991 -6.11261 -28.0683
C -12.3615 -7.26885 -27.7399
O -14.3462 -5.493 -21.8526
C -13.3387 -5.73205 -20.9847
C -12.7889 -4.68325 -20.2495
C -11.7777 -4.93284 -19.322
C -11.3433 -6.24283 -19.0975
C -11.8613 -7.27126 -19.8772
C -12.8552 -7.02515 -20.8148
S -10.1949 -6.7124 -17.8766
C -8.9259 -7.66173 -18.5945
O -10.972 -7.51352 -16.7407
O -9.49252 -5.47232 -17.17
C -8.23291 -8.6557 -17.8997
C -7.08059 -9.21315 -18.447
C -6.62645 -8.80455 -19.6994
C -7.42009 -7.94743 -20.4631
C -8.56387 -7.38029 -19.9087
H -14.1477 -3.71424 -26.4165
H -11.1509 -5.301 -28.9143
H -10.1584 -3.17909 -29.0663
H -13.1758 -1.55587 -26.6541
H -15.1416 -7.36151 -25.7936
H -15.6044 -7.04536 -23.4881
H -12.0632 -4.85638 -23.0633
H -11.5443 -5.26714 -25.3509
H -15.3552 -5.54053 -27.5295
H -14.9579 -7.13324 -28.201
H -14.4686 -5.66115 -29.0531
H -11.3603 -7.15307 -27.3219
H -12.2982 -7.32252 -28.8281
H -12.784 -8.20442 -27.3733
H -13.1307 -3.72762 -20.3859
H -11.3727 -4.14909 -18.8117
H -11.5115 -8.22058 -19.7532
H -13.2294 -7.79856 -21.3675
H -8.54419 -8.97118 -16.9795
H -6.56098 -9.91267 -17.9144
H -7.16258 -7.71451 -21.4254
H -9.12847 -6.73718 -20.4629
C -11.1585 10.3017 -37.326
C -12.4498 10.1066 -36.8172
C -13.1713 11.2353 -36.4295
C -12.5875 12.4992 -36.4842
C -11.2646 12.6798 -36.8916
C -10.5575 11.5614 -37.3341
O -10.7428 13.9425 -36.7924
C -12.9805 8.72464 -36.7066
C -11.8536 7.92479 -36.1863
C -11.3759 6.76748 -36.8098
C -10.3691 6.01632 -36.2171
C -9.79775 6.44398 -35.0195
C -10.1804 7.65308 -34.458
C -11.2301 8.36616 -35.0138
C -14.138 8.49148 -35.6973
C -13.4789 8.32556 -38.1127
O -8.87101 5.71866 -34.361
C -9.34953 4.46167 -34.2004
C -8.51751 3.43217 -34.6183
C -8.91794 2.10875 -34.4961
C -10.1386 1.79489 -33.898
C -10.9617 2.83154 -33.4552
C -10.5959 4.16321 -33.6433
S -10.6797 0.152212 -33.6933
C -10.8397 -0.177011 -31.9928
O -9.67885 -0.929185 -34.3014
O -12.0527 -0.00820188 -34.4849
C -9.69125 -0.146427 -31.2021
C -9.77211 -0.36309 -29.8325
C -10.9923 -0.695763 -29.2569
C -12.1401 -0.771217 -30.046
C -12.0694 -0.47267 -31.4006
H -10.6217 9.51266 -37.692
H -14.1319 11.158 -36.0974
H -13.1453 13.3066 -36.2061
H -9.59131 11.6481 -37.6584
H -11.7449 6.43767 -37.6992
H -10.0604 5.1515 -36.6695
H -9.69681 8.01551 -33.6328
H -11.5275 9.2215 -34.5407
H -14.3112 7.41684 -35.589
H -15.0657 8.9508 -36.0398
H -13.8916 8.89083 -34.7137
H -12.6532 8.35075 -38.8246
H -14.241 9.03289 -38.4441
H -13.9163 7.32454 -38.1011
H -7.602 3.64844 -35.0216
H -8.29868 1.38342 -34.8521
H -11.8444 2.61147 -32.9912
H -11.2424 4.90515 -33.367
H -8.78123 0.0369314 -31.6235
H -8.934 -0.284124 -29.252
H -13.041 -1.04346 -29.6465
H -12.9326 -0.478777 -31.9445
C -8.27338 23.9671 -32.7058
C -8.26778 23.5567 -34.0492
C -8.45702 22.1975 -34.3087
C -8.58903 21.2688 -33.2851
C -8.53948 21.673 -31.955
C -8.34212 23.0246 -31.6758
O -8.75242 20.8049 -30.9295
C -8.07979 24.4682 -35.2132
C -7.33941 23.7322 -36.289
C -6.2246 22.9401 -35.971
C -5.5779 22.1665 -36.9384
C -5.97716 22.218 -38.2721
C -7.02825 23.0616 -38.6129
C -7.71242 23.7834 -37.6391
C -9.49165 24.9364 -35.6479
C -7.22123 25.7063 -34.8745
O -5.32306 21.5217 -39.2438
C -5.68328 20.2161 -39.4576
C -6.43897 19.4182 -38.5926
C -6.66144 18.0707 -38.8926
C -6.20765 17.5116 -40.0897
C -5.48443 18.3147 -40.9637
C -5.22115 19.6425 -40.6437
S -6.52859 15.8466 -40.4899
C -7.8178 15.2693 -39.4652
O -5.18197 15.0237 -40.2577
O -6.87595 15.6577 -42.0334
C -9.16613 15.2721 -39.842
C -10.145 14.779 -38.9732
C -9.80002 14.3138 -37.7033
C -8.45998 14.334 -37.3263
C -7.48693 14.811 -38.1938
H -8.2336 24.9579 -32.4485
H -8.50924 21.8563 -35.268
H -8.73463 20.2927 -33.5322
H -8.26242 23.3344 -30.7033
H -5.87048 22.9096 -35.0123
H -4.79787 21.5655 -36.6648
H -7.30307 23.1658 -39.5909
H -8.49242 24.3538 -37.9587
H -9.41951 25.789 -36.3246
H -10.0769 25.2358 -34.7793
H -10.018 24.1252 -36.1501
H -6.84947 26.1473 -35.8007
H -6.3713 25.4179 -34.2565
H -7.8092 26.4582 -34.3465
H -6.83019 19.8024 -37.7313
H -7.16267 17.4919 -38.2193
H -5.13679 17.9334 -41.8435
H -4.67095 20.2003 -41.2986
H -9.44992 15.6439 -40.7522
H -11.1237 14.7742 -39.2685
H -8.17497 14.0117 -36.4027
H -6.51782 14.8334 -37.8796
C -13.259 10.4192 -27.5421
C -13.0508 11.2939 -26.4722
C -14.1616 11.7161 -25.7334
C -15.4486 11.3766 -26.1296
C -15.6511 10.6049 -27.2689
C -14.5478 10.1048 -27.9573
O -16.915 10.3538 -27.6956
C -11.687 11.7391 -26.1156
C -10.7727 11.5756 -27.29
C -9.62004 10.7786 -27.2564
C -8.75541 10.7065 -28.3444
C -9.01159 11.4513 -29.4892
C -10.1993 12.1636 -29.5901
C -11.0585 12.2377 -28.4963
C -11.6667 13.2504 -25.7555
C -11.332 10.8808 -24.8738
O -8.0937 11.5399 -30.4746
C -7.40155 12.7117 -30.298
C -7.59186 13.6061 -29.2299
C -6.83284 14.7643 -29.1268
C -5.82861 15.0325 -30.0509
C -5.62779 14.1474 -31.1061
C -6.43688 13.0273 -31.2537
S -4.89129 16.4834 -29.8829
C -5.99622 17.7831 -30.1934
O -4.22325 16.5431 -28.4371
O -3.74712 16.6323 -30.9802
C -5.83066 19.0381 -29.6143
C -6.71555 20.0704 -29.9161
C -7.80206 19.8471 -30.7614
C -7.95664 18.5934 -31.3528
C -7.06161 17.5677 -31.0662
H -12.4773 9.99312 -28.0416
H -14.0559 12.2819 -24.8911
H -16.2432 11.7034 -25.5807
H -14.6734 9.50525 -28.7759
H -9.37005 10.2337 -26.4353
H -7.92298 10.1155 -28.287
H -10.4272 12.65 -30.4605
H -11.9062 12.7978 -28.6006
H -12.0565 13.4347 -24.7544
H -12.2736 13.8123 -26.466
H -10.6462 13.6314 -25.794
H -12.119 10.9523 -24.121
H -10.3943 11.2059 -24.4215
H -11.2557 9.83028 -25.1615
H -8.28299 13.4509 -28.4955
H -7.02192 15.4152 -28.3646
H -4.89144 14.308 -31.7906
H -6.30825 12.4354 -32.0776
H -5.06042 19.2069 -28.966
H -6.56744 20.9897 -29.4995
H -8.73509 18.4125 -31.9904
H -7.19636 16.6551 -31.5018
C -24.9729 0.738217 -32.872
C -25.2506 -0.415455 -32.1303
C -24.5173 -1.5755 -32.4162
C -23.5243 -1.56545 -33.3903
C -23.2066 -0.386252 -34.0582
C -23.9332 0.766622 -33.7913
O -22.1993 -0.344682 -34.9587
C -26.2254 -0.293834 -31.0167
C -25.5822 0.788715 -30.2282
C -26.2101 1.96783 -29.8123
C -25.49 2.93103 -29.1107
C -24.1662 2.71673 -28.7337
C -23.5346 1.5432 -29.1366
C -24.2286 0.620777 -29.9062
C -27.6606 -8.08321e-05 -31.5356
C -26.3159 -1.54458 -30.1085
O -23.6008 3.68375 -27.9631
C -22.2447 3.77513 -27.9437
C -21.4295 3.67612 -29.0718
C -20.0544 3.87778 -28.9591
C -19.4662 4.17796 -27.7278
C -20.2868 4.23247 -26.6015
C -21.6589 4.03364 -26.7089
S -17.7548 4.50372 -27.5788
C -17.4884 6.23017 -27.595
O -17.1748 3.80922 -26.264
O -16.9151 3.84625 -28.7641
C -17.5184 6.92815 -28.8047
C -17.3176 8.30533 -28.8393
C -17.0983 9.01056 -27.6587
C -17.0767 8.32473 -26.4472
C -17.2537 6.94493 -26.4183
H -25.5105 1.59651 -32.732
H -24.6659 -2.44851 -31.9143
H -23.0231 -2.43098 -33.5995
H -23.7053 1.64362 -34.2608
H -27.1928 2.15781 -30.0078
H -25.9492 3.80952 -28.8612
H -22.5683 1.33523 -28.8807
H -23.7062 -0.192983 -30.2318
H -28.0607 -0.878482 -32.0457
H -27.6741 0.833315 -32.2367
H -28.3264 0.233668 -30.7024
H -26.9606 -1.33749 -29.255
H -25.3347 -1.8237 -29.7287
H -26.7286 -2.38711 -30.6646
H -21.828 3.46822 -29.989
H -19.4832 3.81053 -29.8003
H -19.8933 4.43369 -25.6841
H -22.2418 4.09593 -25.8713
H -17.6905 6.43634 -29.6805
H -17.3351 8.79749 -29.7357
H -16.9323 8.83158 -25.5718
H -17.212 6.47081 -25.5179
C -22.2568 -10.4025 -41.8627
C -22.5108 -10.6636 -43.2093
C -22.0374 -9.78746 -44.1835
C -21.1481 -8.76951 -43.8458
C -20.7003 -8.66792 -42.5322
C -21.2908 -9.44261 -41.5406
O -20.6954 -7.89264 -44.7774
C -23.0525 -10.9948 -40.7686
C -23.826 -9.79785 -40.3142
C -24.5982 -9.07253 -41.2366
C -25.3467 -7.95803 -40.8646
C -25.3748 -7.54221 -39.5409
C -24.5694 -8.21391 -38.6193
C -23.7853 -9.30407 -39.005
O -26.2109 -6.53455 -39.1596
C -25.9174 -5.3019 -39.6763
C -24.6576 -4.94671 -40.1619
C -24.3738 -3.61976 -40.4589
C -25.3248 -2.62634 -40.2363
C -26.6309 -2.99783 -39.921
C -26.927 -4.33498 -39.6698
S -24.8057 -0.967946 -40.2161
C -24.0238 -0.779952 -38.6673
C -23.7263 0.489817 -38.1759
C -23.0881 0.641584 -36.9475
C -22.8038 -0.473386 -36.1609
C -23.1355 -1.73996 -36.6242
C -23.6918 -1.89162 -37.8856
O -23.7596 -0.66018 -41.378
O -26.0165 0.0606602 -40.3499
O -22.1578 -11.5653 -39.7765
C -22.5624 -12.8119 -39.5174
O -22.0075 -13.5035 -38.6762
C -23.6179 -13.2041 -40.2747
C -24.3197 -14.4133 -40.3082
C -25.3348 -14.5555 -41.2506
C -25.6537 -13.4919 -42.0951
C -24.9832 -12.2709 -41.9985
C -23.9382 -12.1386 -41.0849
H -23.0725 -11.4614 -43.498
H -22.3516 -9.89358 -45.15
H -19.9598 -8.00644 -42.286
H -21.0167 -9.27585 -40.5698
H -24.6269 -9.33849 -42.2185
H -25.8884 -7.45028 -41.5658
H -24.5549 -7.91763 -37.6408
H -23.1817 -9.73178 -38.3027
H -23.9178 -5.63772 -40.276
H -23.4397 -3.37537 -40.7816
H -27.3735 -2.30065 -39.8348
H -27.8921 -4.59248 -39.4442
H -23.9729 1.31834 -38.7191
H -22.835 1.57781 -36.6278
H -22.9683 -2.56625 -36.047
H -23.8501 -2.83906 -38.208
H -24.107 -15.1851 -39.6712
H -25.8491 -15.4379 -41.3221
H -26.3927 -13.6095 -42.791
H -25.2647 -11.5013 -42.5998
C -33.8405 -5.83374 -45.0995
C -35.1001 -5.95873 -45.716
C -35.3047 -6.839 -46.7795
C -34.2958 -7.71891 -47.1641
C -33.0138 -7.49387 -46.6644
C -32.7876 -6.55273 -45.6615
O -34.5774 -8.76353 -48.0004
C -33.6272 -5.07239 -43.8363
C -32.3288 -4.41613 -43.5178
C -31.9394 -4.26542 -42.1758
C -30.7381 -3.66155 -41.8259
C -29.9235 -3.11374 -42.8051
C -30.3242 -3.19523 -44.1419
C -31.4952 -3.86908 -44.4958
O -28.7752 -2.51642 -42.3956
C -27.7968 -2.8629 -43.2558
C -27.1338 -1.84783 -43.9345
C -26.1639 -2.16148 -44.8733
C -25.8577 -3.49348 -45.145
C -26.4896 -4.50894 -44.425
C -27.4619 -4.19777 -43.4801
S -24.7473 -3.91831 -46.4074
C -23.5438 -5.05151 -45.874
C -23.3932 -5.38678 -44.529
C -22.4462 -6.33368 -44.1386
C -21.6537 -6.97751 -45.094
C -21.7977 -6.62348 -46.433
C -22.7004 -5.63664 -46.8135
O -25.6501 -4.59769 -47.5279
O -24.0254 -2.67125 -47.0825
O -34.6274 -4.0494 -43.6611
C -35.3934 -4.44502 -42.6445
O -36.3648 -3.79131 -42.2982
C -34.9798 -5.60545 -42.0691
C -35.4501 -6.31903 -40.9706
C -34.7786 -7.48702 -40.6081
C -33.6813 -7.94082 -41.3456
C -33.2167 -7.21193 -42.4408
C -33.895 -6.04141 -42.7784
H -35.9133 -5.43312 -45.3931
H -36.2077 -6.85171 -47.2635
H -32.2222 -8.02899 -47.019
H -31.8356 -6.41915 -45.3212
H -32.5298 -4.58104 -41.4056
H -30.4623 -3.61212 -40.8409
H -29.7655 -2.75819 -44.8771
H -31.7448 -3.9411 -45.4823
H -27.3651 -0.867974 -43.7587
H -25.7031 -1.3993 -45.3654
H -26.2534 -5.4887 -44.5998
H -27.9333 -4.95033 -42.9708
H -23.9673 -4.93145 -43.8185
H -22.3432 -6.54045 -43.143
H -21.2323 -7.07738 -47.1491
H -22.7452 -5.34029 -47.7912
H -36.2589 -5.99972 -40.4369
H -35.0913 -8.01337 -39.7901
H -33.2161 -8.81106 -41.0766
H -32.4019 -7.53154 -42.9687
C -25.4297 -18.8186 -47.2009
C -24.8108 -19.8678 -46.5096
C -25.2541 -20.2754 -45.2494
C -26.3376 -19.6656 -44.6235
C -26.8998 -18.5541 -45.2616
C -26.437 -18.1299 -46.5127
O -26.7845 -20.1697 -43.3973
C -25.0361 -18.4246 -48.5923
C -26.1731 -17.8633 -49.3709
C -26.1071 -16.6556 -50.0891
C -27.2581 -16.0567 -50.5786
C -28.4906 -16.6515 -50.3469
C -28.543 -17.9483 -49.8466
C -27.3833 -18.5583 -49.3822
O -29.6199 -15.9577 -50.6102
C -30.2062 -15.5925 -49.4267
C -29.5648 -14.8649 -48.4192
C -30.2844 -14.3977 -47.3125
C -31.6535 -14.6639 -47.1589
C -32.2495 -15.479 -48.1226
C -31.5388 -15.9377 -49.2308
S -32.6317 -13.9712 -45.8636
C -33.3204 -12.4505 -46.397
C -32.5699 -11.7493 -47.3304
C -32.9817 -10.5193 -47.8268
C -34.191 -9.95351 -47.4346
C -34.9754 -10.6641 -46.5173
C -34.5346 -11.8839 -45.9782
O -31.7408 -13.6687 -44.5773
O -33.7801 -14.9539 -45.3557
O -23.9716 -17.4489 -48.5109
C -23.1347 -17.7414 -49.5109
O -22.3268 -16.9299 -49.9397
C -23.2982 -19.0073 -49.974
C -22.5395 -19.7651 -50.8622
C -22.9533 -21.0703 -51.1187
C -24.0916 -21.5899 -50.4962
C -24.8702 -20.7975 -49.6506
C -24.4421 -19.497 -49.3968
H -24.016 -20.3595 -46.9168
H -24.776 -21.044 -44.7753
H -27.663 -18.0377 -44.821
H -26.8535 -17.2941 -46.9257
H -25.2353 -16.1592 -50.2663
H -27.1935 -15.1705 -51.0859
H -29.4323 -18.448 -49.7979
H -27.4397 -19.5094 -49.0223
H -28.5681 -14.65 -48.4939
H -29.7916 -13.8311 -46.6231
H -33.2313 -15.7335 -48.0388
H -32.0107 -16.522 -49.9241
H -31.6938 -12.1451 -47.6601
H -32.3817 -10.0388 -48.4948
H -35.8869 -10.2931 -46.2366
H -35.1155 -12.3562 -45.2803
H -21.6988 -19.3898 -51.3056
H -22.4153 -21.6505 -51.7652
H -24.3549 -22.5625 -50.6636
H -25.7248 -21.1691 -49.2369
C -31.8461 -24.9391 -38.1233
C -32.471 -24.1672 -39.1009
C -33.8262 -23.876 -39.0217
C -34.6157 -24.3857 -37.9842
C -33.9737 -25.0935 -36.9663
C -32.6113 -25.3716 -37.0354
O -35.9794 -24.2424 -37.93
C -30.4312 -25.3238 -38.2915
C -29.5597 -24.2777 -38.85
C -29.7149 -22.9404 -38.4779
C -28.8356 -21.9672 -38.9558
C -27.76 -22.3335 -39.771
C -27.6147 -23.6651 -40.1381
C -28.5171 -24.6246 -39.7108
O -26.8319 -21.4521 -40.2241
C -27.174 -21.2824 -41.5238
C -26.5678 -22.266 -42.7897
C -27.1702 -22.0821 -44.3879
C -28.4205 -20.9324 -44.709
C -28.9475 -19.8815 -43.4424
C -28.338 -20.0848 -41.8506
S -29.4683 -21.1761 -46.1086
C -30.0845 -22.1673 -44.8219
C -29.4476 -23.362 -44.5107